40
Properties = species:S:1:pos:R:3:force:R:3:Z:I:1 Generated=T by=T Multiwfn=T energy=-29654.66673603718 pbc="F F F"
C 4.66317985 -0.75167912 -0.82713471 -0.00361291 0.00246245 -0.02036345 6
C 4.51235451 0.62159908 -0.61099911 0.00082183 0.00039940 -0.00943184 6
C 3.23683405 1.18086393 -0.39893713 0.00199590 0.00499092 -0.00784814 6
C 2.09733335 0.32531498 -0.38177240 -0.00126827 0.00155953 -0.01790023 6
C 2.25783397 -1.08776602 -0.58135431 0.00018450 0.00701274 -0.01850783 6
C 0.79327576 0.87209543 -0.18342280 -0.00165934 0.00372820 -0.01239596 6
C -0.34313504 0.02311355 -0.16941217 -0.00259630 -0.00026488 -0.01593693 6
C -0.17899997 -1.40567380 -0.33186932 0.00072104 0.00176887 -0.01462387 6
C -1.64093738 0.57364423 -0.00858745 -0.00084096 -0.00087957 -0.00612339 6
C -2.78850721 -0.27628526 -0.01233739 0.00000740 -0.00162016 0.01061573 6
C -2.62665970 -1.69520230 -0.16666198 0.00347989 0.00079879 0.01190297 6
C 3.04202261 2.59298482 -0.20956287 0.00207467 0.00315032 0.00189953 6
C 1.79643514 3.12193450 -0.03374965 0.00194597 0.00034113 0.00412138 6
C 0.62649709 2.28816016 -0.01967827 -0.00231127 -0.00179540 0.00282564 6
C -0.66347226 2.81349552 0.13838377 0.00248471 -0.00422437 0.00486432 6
C -1.79927260 1.99208710 0.14463792 -0.00271971 -0.00146327 -0.00714468 6
C -4.09297376 0.28027797 0.13331218 0.00164319 0.00165101 0.00252503 6
C -5.21164435 -0.57640735 0.11904139 0.00006181 -0.00194746 0.01039518 6
C -5.05141507 -1.95775101 -0.03174044 0.00406311 0.00259748 0.00772082 6
C -3.12733441 2.52086098 0.29228290 -0.00274491 -0.00406738 -0.00598095 6
C -4.22113546 1.70470352 0.28712749 0.00397261 0.00340995 -0.00532177 6
H 5.66190611 -1.16496501 -0.98696825 -0.00536204 -0.00680957 -0.03835953 1
H 5.38551377 1.27838231 -0.61645369 0.00427698 -0.00071477 0.00638117 1
H 3.92186167 3.24111864 -0.21847969 -0.00144599 0.00981889 0.00007189 1
H 1.66638076 4.19915802 0.09731976 0.00191491 -0.00198623 0.00361189 1
H -0.78674770 3.89400079 0.25205503 -0.00310522 -0.00719240 0.01168279 1
H -6.21060461 -0.14762011 0.23008053 0.00132510 -0.00034890 -0.00489739 1
H -5.93095095 -2.60587393 -0.04012150 -0.00046059 -0.00115751 0.00298238 1
H -3.24581787 3.60157488 0.40408069 0.00599900 -0.00041832 0.01128581 1
H -5.22415198 2.12453234 0.39801297 0.00230397 0.00374301 0.00018491 1
C -3.78382737 -2.51386905 -0.16972222 -0.00074937 -0.00392721 0.00542703 6
H -3.66488664 -3.59413484 -0.28244855 -0.00156493 -0.00155048 -0.00982249 1
C -1.32432345 -2.22705899 -0.31636304 0.00063594 -0.00237061 0.00201698 6
H -1.20429965 -3.30655204 -0.43807168 0.00050090 -0.00169605 0.00026297 1
C 1.11836579 -1.92372162 -0.52416322 -0.00298644 -0.00004757 -0.02644760 6
H 1.24616246 -3.00262038 -0.64384706 -0.00193614 0.00426459 -0.03139775 1
C 3.55804033 -1.59567736 -0.82548037 -0.00054667 0.00752202 -0.01450154 6
H 3.68289139 -2.66935957 -0.98064138 0.00438255 0.00376533 -0.01282199 1
O 3.90410821 -2.57318982 1.92520518 -0.00254899 -0.04247406 0.11460621 8
N 3.78328180 -1.50078343 2.31730954 -0.00633602 0.02397163 0.06444270 7
40
Properties = species:S:1:pos:R:3:force:R:3:Z:I:1 Generated=T by=T Multiwfn=T energy=-29654.521075392586 pbc="F F F"
C 4.67249930 -0.74963793 -0.76273514 -0.04130992 0.01761746 -0.13920560 6
C 4.51500526 0.62487575 -0.57123402 -0.00585651 0.03428134 -0.03243000 6
C 3.23685149 1.18171398 -0.36617112 0.00482570 0.02242434 -0.03646087 6
C 2.09907303 0.32530895 -0.32982664 0.00486478 0.02419125 -0.07660407 6
C 2.26331305 -1.08692368 -0.52094367 -0.00252328 0.01924394 -0.14633399 6
C 0.79219522 0.87466998 -0.15334819 0.00230031 0.00324391 -0.01782762 6
C -0.34441129 0.02632801 -0.14972731 0.01299554 0.00163836 -0.00313803 6
C -0.17591065 -1.40348790 -0.29762513 0.00607418 -0.00547336 -0.00349660 6
C -1.64442491 0.57835562 -0.01091301 0.00603109 -0.00755262 0.01253773 6
C -2.79087796 -0.27225518 -0.01943856 0.00321198 -0.00677229 0.01565221 6
C -2.62547119 -1.69109236 -0.17130604 -0.00206480 -0.00693355 0.01508564 6
C 3.03715887 2.59592705 -0.21569921 0.01037157 0.03346173 0.01044428 6
C 1.79108891 3.12697584 -0.05004668 0.00166464 0.02067805 0.01025932 6
C 0.62188484 2.29293727 -0.01572507 0.00615080 0.00101137 0.00820043 6
C -0.66993417 2.81901401 0.13013470 0.00757000 -0.00567684 0.00411371 6
C -1.80541884 1.99726278 0.13590818 0.00945585 -0.00482514 0.00004247 6
C -4.09641753 0.28247836 0.12516236 0.00488093 -0.00599720 0.00222195 6
C -5.21210224 -0.57788641 0.11655522 -0.00489430 -0.00017427 0.00368501 6
C -5.04879202 -1.95871304 -0.03659086 -0.00316914 -0.00258668 0.00251269 6
C -3.13471278 2.52494553 0.28037693 0.00682016 -0.00804169 0.00432696 6
C -4.22725129 1.70719246 0.27733912 0.00641053 -0.00570646 -0.00015905 6
H 5.67549209 -1.16530640 -0.89317882 -0.04554026 0.00417007 -0.11981604 1
H 5.38204889 1.28722143 -0.62339775 0.01672112 0.01636636 0.10713402 1
H 3.91684828 3.24262356 -0.24864577 -0.00139662 0.04438599 0.01140845 1
H 1.66071409 4.20714734 0.04938847 -0.00506708 0.01144012 0.01490469 1
H -0.79594748 3.89999939 0.23581723 0.00726650 -0.00392813 -0.00090045 1
H -6.21162998 -0.15254162 0.23366550 -0.00397770 0.00170546 -0.00861356 1
H -5.92607904 -2.60977695 -0.04044011 -0.00653379 0.00325486 -0.00448020 1
H -3.25500164 3.60526935 0.39526102 0.01086307 -0.00600939 -0.00188611 1
H -5.23044721 2.12599566 0.39183953 0.00783292 -0.00436440 -0.00715435 1
C -3.78077052 -2.51183665 -0.18040921 -0.00112676 -0.00052774 0.01396104 6
H -3.65855446 -3.59128203 -0.29738784 -0.00819786 -0.00304300 -0.00121875 1
C -1.32146110 -2.22346666 -0.30369811 0.00244476 -0.00556927 0.01668970 6
H -1.19916886 -3.30271421 -0.42509888 -0.00792620 -0.00520972 0.01045796 1
C 1.12545851 -1.92465046 -0.45797165 -0.00694193 0.00898349 -0.06279863 6
H 1.25511370 -3.00610554 -0.55016862 -0.00142902 0.00921586 -0.06909532 1
C 3.56450781 -1.58920761 -0.77411443 -0.03868575 0.05001608 -0.25238228 6
H 3.68818589 -2.65735272 -0.95415756 -0.00032226 -0.02823287 0.00875486 1
O 3.87907915 -2.56964704 1.61128829 0.04156003 -0.22689082 0.53762342 8
N 3.80932762 -1.57594034 2.18096063 0.00664666 0.01618535 0.17398482 7
40
Properties = species:S:1:pos:R:3:force:R:3:Z:I:1 Generated=T by=T Multiwfn=T energy=-29653.78922843083 pbc="F F F"
C 4.69497150 -0.76360415 -0.68424178 -0.25037970 -0.10701976 -0.35187529 6
C 4.51755436 0.60763465 -0.55310014 -0.10180484 0.25567695 0.08616127 6
C 3.23393108 1.16659142 -0.34515995 0.16616527 0.02375278 -0.04362993 6
C 2.09653123 0.31526938 -0.28786439 0.05454015 -0.03219926 -0.02577243 6
C 2.26607664 -1.09919569 -0.43873701 0.21854420 0.14710748 -0.37886483 6
C 0.78804156 0.87210941 -0.14502696 0.01614360 0.00290787 0.03714350 6
C -0.34925408 0.02717211 -0.14960171 0.03090857 -0.00633834 0.00723848 6
C -0.17923073 -1.40149012 -0.29677339 0.11791281 -0.03041528 0.04848360 6
C -1.64905295 0.58106090 -0.01397844 0.03249839 0.01972859 -0.00342815 6
C -2.79281118 -0.26980110 -0.02261715 -0.03645639 -0.01265615 0.00608246 6
C -2.62581246 -1.68843123 -0.17607477 -0.00722999 -0.00934524 0.00675470 6
C 3.03409638 2.57865512 -0.21950049 -0.01590387 0.14302467 0.01583075 6
C 1.78910162 3.11796608 -0.05383169 0.08492874 0.04013302 -0.00207812 6
C 0.61794625 2.29117730 -0.01760316 -0.03541217 -0.01254544 0.01653507 6
C -0.67526487 2.82083354 0.12497691 0.08044155 -0.00707696 -0.00175308 6
C -1.81032363 2.00111545 0.13273669 -0.01506394 -0.05006859 -0.00119443 6
C -4.09899062 0.28478972 0.12326172 0.03745671 0.00721066 0.00329029 6
C -5.21123036 -0.57707884 0.11559491 -0.04074407 -0.03702394 -0.00091722 6
C -5.04647414 -1.95876854 -0.03594992 -0.02976746 0.02462176 0.00265832 6
C -3.14062846 2.52887403 0.27860668 0.04552714 -0.01251623 -0.00630265 6
C -4.23184236 1.71021721 0.27575272 -0.00020080 -0.03470882 -0.00411706 6
H 5.70253619 -1.17056138 -0.82574269 -0.15405804 -0.00873620 -0.13732788 1
H 5.37294514 1.27405647 -0.67873379 0.03434716 0.08137717 0.18791942 1
H 3.91640620 3.21987099 -0.25928938 0.01004474 0.08967139 0.00711800 1
H 1.66354460 4.19830483 0.04368968 0.00754346 0.02860070 0.00053608 1
H -0.80178414 3.90212391 0.22933920 0.02667905 -0.01299415 -0.00938509 1
H -6.21085355 -0.15255302 0.23120671 -0.02067085 -0.00201883 -0.00351763 1
H -5.92339937 -2.60982659 -0.03935977 -0.01464809 -0.00155860 -0.00003882 1
H -3.26216069 3.60941985 0.39319855 0.01796486 -0.01820974 -0.00266459 1
H -5.23546675 2.12861925 0.39002209 0.01246342 -0.01480467 -0.00598018 1
C -3.77928702 -2.51120805 -0.18095508 -0.00079324 -0.00022153 0.00264011 6
H -3.65669621 -3.59065209 -0.29736321 -0.00519203 0.00143072 -0.00137785 1
C -1.32181276 -2.21965837 -0.31124226 -0.04077446 -0.04323027 0.02762537 6
H -1.19666141 -3.29864163 -0.42667408 -0.02327985 -0.02310882 0.00105328 1
C 1.12836176 -1.92813991 -0.42128274 -0.11330935 -0.05489013 -0.02406846 6
H 1.25810050 -3.00982310 -0.50474254 -0.02616190 -0.01772714 -0.06476064 1
C 3.58601707 -1.61281497 -0.62826836 -0.30221818 0.81787795 -2.16501738 6
H 3.68933574 -2.64345038 -0.95583165 0.03599745 -0.22497329 0.19739862 1
O 3.87033695 -2.42872179 1.29394294 0.11746045 -0.62074056 2.36371682 8
N 3.80389250 -1.58929194 2.08351407 0.08650164 -0.28799376 0.21588552 7
40
Properties = species:S:1:pos:R:3:force:R:3:Z:I:1 Generated=T by=T Multiwfn=T energy=-29653.08779345832 pbc="F F F"
C 4.72633816 -0.75272071 -0.63492421 -0.00195476 0.00521991 0.00178208 6
C 4.52821424 0.57856604 -0.56669809 0.00178687 -0.00339581 0.00227224 6
C 3.21554697 1.16339194 -0.34070060 0.00185227 0.00184184 0.00290910 6
C 2.09054340 0.31630644 -0.28356351 0.00093398 -0.00038844 0.00202603 6
C 2.24188430 -1.11555340 -0.39308818 0.00017067 0.00074871 0.00190848 6
C 0.78595951 0.87286426 -0.14834640 0.00048542 -0.00027763 -0.00187804 6
C -0.35379710 0.02708583 -0.15068878 0.00022970 -0.00040937 -0.00249736 6
C -0.19286389 -1.39723386 -0.30224063 0.00056600 -0.00085119 -0.00011549 6
C -1.65146908 0.58029171 -0.01384046 -0.00022024 -0.00028956 -0.00097615 6
C -2.78979291 -0.26928860 -0.02331363 0.00001121 -0.00054934 0.00336599 6
C -2.62488094 -1.68639665 -0.17703772 0.00073215 -0.00027161 0.00216425 6
C 3.03517478 2.56099648 -0.22018660 -0.00002026 0.00080254 0.00094709 6
C 1.77935936 3.11273711 -0.05303839 0.00060133 -0.00030000 0.00071328 6
C 0.62129200 2.29256837 -0.01980171 -0.00058179 -0.00052404 -0.00199631 6
C -0.68420309 2.82228514 0.12533643 -0.00015915 0.00002736 -0.00262859 6
C -1.80949639 2.00660543 0.13307445 -0.00048594 -0.00018301 -0.00095696 6
C -4.10249683 0.28471540 0.12300909 -0.00061527 -0.00012629 0.00459636 6
C -5.20690734 -0.57315965 0.11529628 -0.00100895 -0.00023017 0.00185485 6
C -5.04235833 -1.96060599 -0.03653217 0.00027382 0.00097748 0.00150975 6
C -3.14520180 2.53147764 0.27889499 -0.00141406 -0.00078162 0.00120076 6
C -4.23317149 1.71408273 0.27596952 0.00054723 0.00090323 0.00175066 6
H 5.72082513 -1.16881726 -0.80838701 -0.00174192 -0.00086286 0.00077483 1
H 5.36952600 1.26410316 -0.70190349 0.00408857 -0.00126529 -0.00132391 1
H 3.91420121 3.20921849 -0.26100355 -0.00045545 0.00343967 -0.00343139 1
H 1.66215811 4.19463676 0.04394103 0.00126046 -0.00022909 0.00230042 1
H -0.80535296 3.90363447 0.22998057 -0.00014954 -0.00031213 -0.00016244 1
H -6.20871731 -0.15220357 0.23149902 -0.00291188 -0.00045874 -0.00574693 1
H -5.92122388 -2.60956095 -0.03885170 -0.00012172 0.00036623 -0.00120081 1
H -3.26475772 3.61158297 0.39394485 -0.00167225 0.00074922 0.00061614 1
H -5.23707850 2.13032492 0.39116479 -0.00217880 0.00054693 -0.00526346 1
C -3.77885839 -2.51111393 -0.18097093 -0.00021386 0.00040032 0.00190282 6
H -3.65575791 -3.59060154 -0.29723240 -0.00076537 0.00091480 -0.00085607 1
C -1.31737700 -2.21543094 -0.31496096 0.00015519 -0.00084055 0.00014753 6
H -1.19367035 -3.29562989 -0.42752568 -0.00187135 -0.00156673 0.00063568 1
C 1.13911337 -1.92386527 -0.41756556 0.00118523 0.00022142 0.00198083 6
H 1.26153013 -3.00757816 -0.49615080 0.00113010 -0.00007163 0.00232690 1
C 3.62064165 -1.71159325 -0.36170854 -0.00008454 -0.00130998 -0.00205729 6
H 3.68486378 -2.61509656 -0.98059694 0.00005944 0.00311937 -0.00529339 1
O 3.85923382 -2.34389985 1.01345044 0.00166659 -0.00192211 0.00156138 8
N 3.79373861 -1.56531372 2.04144062 0.00089078 -0.00286184 -0.00486278 7
40
Properties = species:S:1:pos:R:3:force:R:3:Z:I:1 Generated=T by=T Multiwfn=T energy=-29654.71655028889 pbc="F F F"
C 4.65184093 -0.87377024 -0.95339298 0.00129584 -0.00003497 -0.00089536 6
C 4.52892944 0.49399538 -0.68704322 0.00187372 -0.00024425 -0.00091989 6
C 3.26621178 1.06931410 -0.44457662 0.00190483 0.00029408 -0.00163491 6
C 2.10835407 0.23859717 -0.46821438 0.00126359 0.00030930 -0.00079015 6
C 2.23742851 -1.16592489 -0.73847458 0.00157249 0.00009894 -0.00016275 6
C 0.81855075 0.79942543 -0.22288894 0.00098278 -0.00006248 -0.00056785 6
C -0.33540591 -0.02548789 -0.24294747 0.00038757 -0.00022739 0.00051792 6
C -0.20602499 -1.44216504 -0.50803165 0.00056899 -0.00036289 0.00068098 6
C -1.61610903 0.53618344 -0.00406130 0.00000632 -0.00040536 0.00071250 6
C -2.77994821 -0.29079399 -0.02445792 -0.00073940 -0.00012161 0.00050851 6
C -2.65276481 -1.69763686 -0.28526978 -0.00023284 -0.00010973 -0.00022600 6
C 3.10359721 2.47160974 -0.17059265 0.00116368 0.00006556 -0.00085762 6
C 1.87258350 3.01263481 0.06157821 0.00122600 -0.00018892 -0.00148975 6
C 0.68583625 2.20324316 0.04389937 0.00052970 0.00021494 -0.00116286 6
C -0.58779179 2.73996510 0.27613304 0.00039816 -0.00055464 0.00065949 6
C -1.73976472 1.94188747 0.25746586 0.00006433 -0.00025500 0.00064082 6
C -4.06603721 0.27683947 0.21266055 -0.00110717 0.00010783 -0.00071178 6
C -5.20093403 -0.55788154 0.18681141 -0.00100170 -0.00058801 0.00042665 6
C -5.07458533 -1.92755762 -0.06713766 -0.00034098 -0.00051412 0.00034571 6
C -3.04996856 2.48275313 0.49203700 -0.00047154 -0.00048784 0.00068103 6
C -4.15968828 1.68892215 0.47043091 -0.00037132 0.00011287 0.00006309 6
H 5.64010034 -1.30100070 -1.13952944 0.00093285 -0.00095655 -0.00088564 1
H 5.41570823 1.13196953 -0.66553950 0.00276923 -0.00104109 -0.00126812 1
H 3.99598897 3.10226468 -0.15281690 0.00090518 0.00106691 0.00130072 1
H 1.76750682 4.08100797 0.26637713 0.00275453 -0.00041266 0.00113108 1
H -0.68553244 3.81029729 0.47644688 0.00059639 -0.00054970 0.00193738 1
H -6.18578575 -0.12065131 0.36808498 -0.00159671 -0.00187835 0.00047267 1
H -5.96654497 -2.55836779 -0.08316484 -0.00019422 -0.00072073 0.00020173 1
H -3.14016455 3.55387680 0.68961345 -0.00106639 -0.00032190 0.00098237 1
H -5.14881808 2.11756185 0.65039513 -0.00014588 0.00120276 0.00114882 1
C -3.82545411 -2.49389352 -0.29963490 -0.00044388 -0.00051741 -0.00001059 6
H -3.73348699 -3.56448655 -0.49788612 -0.00088065 -0.00069271 0.00056636 1
C -1.36767955 -2.24046735 -0.51993563 -0.00018908 -0.00000653 0.00009894 6
H -1.27298657 -3.31108597 -0.71837470 -0.00169395 -0.00008927 -0.00142275 1
C 1.07721052 -1.97447456 -0.74763129 0.00091984 0.00003255 -0.00006340 6
H 1.17836619 -3.04406746 -0.94823150 0.00234978 0.00041328 -0.00099800 1
C 3.52989371 -1.69490832 -0.98059099 0.00124205 0.00030072 -0.00066334 6
H 3.63253123 -2.76362762 -1.18273850 0.00225805 0.00016496 -0.00144758 1
O 3.60788829 -1.98773935 2.26365833 -0.01227578 0.00450493 0.00345104 8
N 3.56234537 -0.84810720 2.40124098 -0.00521451 0.00245463 -0.00034936 7
40
Properties = species:S:1:pos:R:3:force:R:3:Z:I:1 Generated=T by=T Multiwfn=T energy=-29654.714690390658 pbc="F F F"
C 4.65619945 -0.85213847 -0.93005709 0.00145694 -0.00023639 -0.00067060 6
C 4.52772000 0.51706114 -0.67397057 0.00213890 -0.00056590 -0.00084250 6
C 3.26236501 1.08963417 -0.43875499 0.00179586 -0.00012300 -0.00232268 6
C 2.10777748 0.25423736 -0.45745531 0.00148769 0.00013318 -0.00088091 6
C 2.24289667 -1.15214696 -0.71487286 0.00135898 -0.00028812 0.00039086 6
C 0.81502436 0.81264586 -0.22213154 0.00089901 -0.00031985 -0.00078367 6
C -0.33560131 -0.01700443 -0.23672281 0.00046012 -0.00020091 0.00069245 6
C -0.19963638 -1.43626312 -0.48422667 0.00035425 -0.00060488 0.00084584 6
C -1.61942927 0.54248697 -0.00981880 -0.00007914 -0.00059372 0.00098638 6
C -2.77983181 -0.28943036 -0.02393107 -0.00101173 -0.00033291 0.00057089 6
C -2.64588344 -1.69917385 -0.26491873 -0.00054919 -0.00013894 -0.00090225 6
C 3.09346447 2.49412157 -0.17980420 0.00112707 0.00000864 -0.00151001 6
C 1.85947196 3.03300514 0.04136722 0.00123778 -0.00018527 -0.00277581 6
C 0.67584260 2.21896366 0.02767538 0.00022219 0.00012974 -0.00201919 6
C -0.60096311 2.75369837 0.24681644 0.00060843 -0.00078604 0.00117391 6
C -1.74978438 1.95100579 0.23267171 -0.00003363 -0.00031074 0.00100849 6
C -4.06922830 0.27615597 0.19967246 -0.00139976 0.00030303 -0.00169503 6
C -5.20067268 -0.56340215 0.18020264 -0.00093773 -0.00078203 0.00055639 6
C -5.06767920 -1.93598317 -0.05389115 -0.00036335 -0.00038237 0.00013699 6
C -3.06326743 2.48979296 0.45339454 -0.00063753 -0.00080635 0.00106480 6
C -4.16973449 1.69129582 0.43725419 -0.00003749 0.00034386 0.00023376 6
H 5.64640417 -1.27671928 -1.11190642 0.00055176 -0.00171143 -0.00084348 1
H 5.41204323 1.15856588 -0.65620324 0.00256982 -0.00120132 -0.00140233 1
H 3.98334770 3.12842347 -0.16606942 0.00089253 0.00091958 0.00241920 1
H 1.74943345 4.10326053 0.23340100 0.00316374 -0.00083077 0.00162638 1
H -0.70376782 3.82616471 0.43268027 0.00065877 -0.00087016 0.00310188 1
H -6.18810968 -0.12761545 0.35054438 -0.00161306 -0.00197543 0.00112383 1
H -5.95703966 -2.57055697 -0.06529565 -0.00007143 -0.00073580 0.00067749 1
H -3.15868885 3.56315863 0.63575158 -0.00088647 -0.00025413 0.00123151 1
H -5.16148352 2.11834781 0.60624019 0.00009122 0.00167518 0.00173272 1
C -3.81524578 -2.50039359 -0.27289864 -0.00041868 -0.00046676 -0.00078460 6
H -3.71809772 -3.57321536 -0.45603120 -0.00093614 -0.00086785 0.00077796 1
C -1.35780559 -2.23967543 -0.48824004 -0.00026266 0.00010865 -0.00055860 6
H -1.25799833 -3.31244323 -0.67201202 -0.00189033 -0.00003918 -0.00267127 1
C 1.08614981 -1.96573736 -0.71627996 0.00129558 -0.00009107 0.00011539 6
H 1.19208392 -3.03701016 -0.90508912 0.00241432 0.00037137 -0.00161002 1
C 3.53750767 -1.67785355 -0.95232024 0.00157891 -0.00002299 -0.00035882 6
H 3.64452639 -2.74780203 -1.14535849 0.00244054 0.00039302 -0.00239318 1
O 3.62598077 -2.06618208 2.25952307 -0.01210172 0.00908895 0.00626866 8
N 3.57512742 -0.92824966 2.40851331 -0.00557436 0.00224910 -0.00171076 7
40
Properties = species:S:1:pos:R:3:force:R:3:Z:I:1 Generated=T by=T Multiwfn=T energy=-29654.712020681574 pbc="F F F"
C 4.66038951 -0.82936692 -0.90790302 0.00133882 -0.00052708 -0.00014774 6
C 4.52628585 0.54113066 -0.66191537 0.00195615 -0.00115828 -0.00052384 6
C 3.25830822 1.11070234 -0.43345857 0.00190390 -0.00020800 -0.00277869 6
C 2.10708789 0.27056531 -0.44688195 0.00132227 -0.00010943 -0.00096154 6
C 2.24832597 -1.13752565 -0.69151467 0.00186595 -0.00046810 0.00075750 6
C 0.81140603 0.82628849 -0.22124966 0.00087464 -0.00038700 -0.00117813 6
C -0.33583452 -0.00809329 -0.23032169 0.00020723 -0.00042146 0.00020517 6
C -0.19325806 -1.42962711 -0.46060407 0.00038165 -0.00052332 0.00078989 6
C -1.62279290 0.54895036 -0.01537080 -0.00007590 -0.00073333 0.00084708 6
C -2.77974509 -0.28784685 -0.02357507 -0.00103698 -0.00047992 0.00115201 6
C -2.63900514 -1.70013529 -0.24497670 -0.00033250 -0.00022425 -0.00106691 6
C 3.08306490 2.51716087 -0.18935149 0.00109709 -0.00026991 -0.00178527 6
C 1.84612657 3.05361720 0.02109036 0.00116445 -0.00042536 -0.00342939 6
C 0.66568528 2.23486299 0.01159476 0.00029717 0.00019381 -0.00245833 6
C -0.61424750 2.76729075 0.21791572 0.00059763 -0.00120497 0.00163502 6
C -1.75987230 1.95995706 0.20833952 -0.00011128 -0.00041647 0.00065224 6
C -4.07243919 0.27536250 0.18654349 -0.00157274 0.00045473 -0.00206866 6
C -5.20037292 -0.56902652 0.17340353 -0.00084024 -0.00094982 0.00116116 6
C -5.06068167 -1.94419133 -0.04079500 -0.00028668 -0.00022363 0.00002448 6
C -3.07662904 2.49632177 0.41522543 -0.00053880 -0.00105266 0.00097332 6
C -4.17980929 1.69318513 0.40426975 0.00035831 0.00045251 0.00038129 6
H 5.65247723 -1.25107892 -1.08612117 0.00044845 -0.00260191 -0.00049252 1
H 5.40805262 1.18624289 -0.64815264 0.00263276 -0.00127866 -0.00164905 1
H 3.97038065 3.15513699 -0.17958350 0.00086117 0.00070011 0.00299333 1
H 1.73113627 4.12554975 0.20054488 0.00341556 -0.00127660 0.00201909 1
H -0.72210991 3.84166440 0.38939322 0.00064200 -0.00126287 0.00432022 1
H -6.19036331 -0.13497969 0.33303881 -0.00156652 -0.00203811 0.00143941 1
H -5.94736473 -2.58258228 -0.04729844 0.00011580 -0.00061249 0.00088667 1
H -3.17733567 3.57167117 0.58243632 -0.00053613 -0.00025500 0.00184492 1
H -5.17415456 2.11838870 0.56232531 0.00036381 0.00215068 0.00215443 1
C -3.80496436 -2.50633037 -0.24643832 -0.00058688 -0.00057912 -0.00122354 6
H -3.70256557 -3.58118492 -0.41413121 -0.00102762 -0.00089258 0.00026873 1
C -1.34793806 -2.23802811 -0.45706303 -0.00054919 -0.00004998 -0.00099224 6
H -1.24303378 -3.31265773 -0.62655064 -0.00199831 -0.00013421 -0.00362742 1
C 1.09509168 -1.95607405 -0.68525952 0.00083453 -0.00061691 0.00022574 6
H 1.20582045 -3.02880472 -0.86269311 0.00234587 0.00021248 -0.00193296 1
C 3.54505186 -1.65974887 -0.92491418 0.00155423 0.00028889 0.00018656 6
H 3.65647929 -2.73073359 -1.10933523 0.00270969 0.00028421 -0.00282636 1
O 3.64484369 -2.15250823 2.25951141 -0.01192658 0.00965665 0.00534805 8
N 3.58999390 -1.01650271 2.42069842 -0.00630291 0.00698738 -0.00112378 7
40
Properties = species:S:1:pos:R:3:force:R:3:Z:I:1 Generated=T by=T Multiwfn=T energy=-29654.708435853576 pbc="F F F"
C 4.66433400 -0.80619483 -0.88669780 0.00192653 -0.00080753 0.00036201 6
C 4.52464956 0.56553428 -0.65102831 0.00204907 -0.00123259 -0.00008834 6
C 3.25409074 1.13205837 -0.42920679 0.00187331 -0.00036458 -0.00303586 6
C 2.10622250 0.28725960 -0.43722451 0.00107117 -0.00007071 -0.00102104 6
C 2.25352707 -1.12237892 -0.66917190 0.00124200 -0.00082851 0.00123135 6
C 0.80771340 0.84013981 -0.22077928 0.00087217 -0.00057531 -0.00159280 6
C -0.33616973 0.00113464 -0.22433512 0.00022379 -0.00047586 -0.00060909 6
C -0.18713910 -1.42231107 -0.43830299 -0.00015889 -0.00062452 0.00066016 6
C -1.62612066 0.55549689 -0.02059683 -0.00056652 -0.00086389 0.00032005 6
C -2.77968331 -0.28602832 -0.02324728 -0.00059439 -0.00055454 0.00192961 6
C -2.63235617 -1.70039508 -0.22631702 -0.00050970 -0.00032180 -0.00079987 6
C 3.07260220 2.54024067 -0.19955002 0.00086692 -0.00033692 -0.00177668 6
C 1.83283183 3.07406478 0.00079727 0.00165111 -0.00074603 -0.00364104 6
C 0.65558769 2.25066105 -0.00429903 0.00008228 0.00000242 -0.00256056 6
C -0.62730875 2.78049981 0.19014654 0.00059943 -0.00155907 0.00208280 6
C -1.76974854 1.96858907 0.18532613 -0.00004376 -0.00063208 -0.00013149 6
C -4.07551851 0.27448311 0.17428220 -0.00179993 0.00060226 -0.00219336 6
C -5.19999781 -0.57457325 0.16710968 -0.00061007 -0.00099759 0.00187619 6
C -5.05381590 -1.95183530 -0.02846245 -0.00037662 -0.00001764 0.00006968 6
C -3.08961852 2.50218185 0.37937130 -0.00075338 -0.00131754 0.00055263 6
C -4.18953756 1.69450358 0.37343707 0.00084060 0.00080090 0.00043400 6
H 5.65828776 -1.22502892 -1.06127230 0.00026230 -0.00357923 -0.00002854 1
H 5.40387583 1.21419001 -0.64133497 0.00245648 -0.00147232 -0.00200022 1
H 3.95735429 3.18182315 -0.19371007 0.00093984 0.00055988 0.00328834 1
H 1.71302409 4.14743038 0.16823499 0.00358294 -0.00169708 0.00212918 1
H -0.74004973 3.85650292 0.34781955 0.00042058 -0.00191629 0.00559308 1
H -6.19241009 -0.14253681 0.31683344 -0.00159830 -0.00197414 0.00158637 1
H -5.93785173 -2.59392137 -0.03030077 0.00015344 -0.00056235 0.00106331 1
H -3.19552797 3.57916975 0.53223464 0.00010531 -0.00031105 0.00263759 1
H -5.18635037 2.11758448 0.52134610 0.00070489 0.00269395 0.00247582 1
C -3.79497602 -2.51138970 -0.22161705 -0.00030756 -0.00063121 -0.00163923 6
H -3.68747678 -3.58791257 -0.37472652 -0.00110347 -0.00114183 -0.00047812 1
C -1.33843589 -2.23546488 -0.42780799 -0.00028097 -0.00024194 -0.00125814 6
H -1.22861051 -3.31162531 -0.58391494 -0.00198160 -0.00031013 -0.00441196 1
C 1.10370331 -1.94566726 -0.65575399 0.00121361 -0.00068669 0.00043215 6
H 1.21914250 -3.01962469 -0.82241236 0.00214929 -0.00015776 -0.00190642 1
C 3.55234350 -1.64115136 -0.89841413 0.00156560 0.00009796 0.00067851 6
H 3.66814457 -2.71310804 -1.07414928 0.00303035 0.00045982 -0.00331904 1
O 3.66480962 -2.24650117 2.25778910 -0.01212836 0.01390720 0.00390206 8
N 3.60660590 -1.11389373 2.44011597 -0.00706951 0.00788419 -0.00081303 7
40
Properties = species:S:1:pos:R:3:force:R:3:Z:I:1 Generated=T by=T Multiwfn=T energy=-29654.703722297294 pbc="F F F"
C 4.66825111 -0.78151385 -0.86499814 0.00202870 -0.00129836 0.00066617 6
C 4.52274120 0.59143927 -0.64034797 0.00214888 -0.00115257 0.00009194 6
C 3.24948241 1.15475190 -0.42566372 0.00172377 -0.00042577 -0.00360057 6
C 2.10511731 0.30515393 -0.42784713 0.00076033 0.00010166 -0.00114615 6
C 2.25870284 -1.10595625 -0.64656620 0.00106176 -0.00063666 0.00146208 6
C 0.80377646 0.85488692 -0.22036635 0.00073724 -0.00050723 -0.00210815 6
C -0.33659348 0.01111768 -0.21799698 -0.00029023 -0.00045617 -0.00182260 6
C -0.18098589 -1.41400152 -0.41572892 -0.00013046 -0.00056251 0.00045205 6
C -1.62954853 0.56244524 -0.02517922 -0.00058385 -0.00077483 -0.00043318 6
C -2.77962587 -0.28386262 -0.02245489 -0.00064473 -0.00036900 0.00278466 6
C -2.62566005 -1.69994774 -0.20780916 -0.00024868 -0.00027465 -0.00090086 6
C 3.06155837 2.56452146 -0.21096371 0.00113859 -0.00045272 -0.00173040 6
C 1.81896208 3.09541486 -0.02050995 0.00143118 -0.00121618 -0.00364783 6
C 0.64508156 2.26716573 -0.02048341 0.00004355 -0.00009328 -0.00267873 6
C -0.64074687 2.79401935 0.16261304 0.00054410 -0.00221979 0.00260617 6
C -1.77983363 1.97733904 0.16315644 -0.00018291 -0.00059012 -0.00106773 6
C -4.07860969 0.27357577 0.16269347 -0.00174095 0.00095141 -0.00219577 6
C -5.19960652 -0.58010444 0.16075435 -0.00047000 -0.00091747 0.00285639 6
C -5.04691302 -1.95905547 -0.01709902 -0.00021721 0.00012434 0.00011529 6
C -3.10277451 2.50770797 0.34504335 -0.00057248 -0.00147890 -0.00018954 6
C -4.19931581 1.69540544 0.34411444 0.00094159 0.00124513 0.00035132 6
H 5.66416451 -1.19741476 -1.03538226 -0.00000561 -0.00444513 0.00012228 1
H 5.39932119 1.24372834 -0.63463933 0.00234207 -0.00177288 -0.00282446 1
H 3.94364275 3.20979893 -0.20950730 0.00095578 0.00057433 0.00358828 1
H 1.69421714 4.17009355 0.13457535 0.00369092 -0.00228201 0.00231456 1
H -0.75848418 3.87147182 0.30633243 0.00023659 -0.00309391 0.00709352 1
H -6.19444601 -0.15035567 0.30066287 -0.00143812 -0.00193347 0.00169137 1
H -5.92829007 -2.60478798 -0.01498620 0.00023567 -0.00055957 0.00138202 1
H -3.21395860 3.58605826 0.48401092 0.00083998 -0.00062349 0.00344461 1
H -5.19855059 2.11602808 0.48243121 0.00105426 0.00316590 0.00248281 1
C -3.78492931 -2.51567709 -0.19776279 -0.00017062 -0.00092663 -0.00152487 6
H -3.67231812 -3.59356111 -0.33689138 -0.00106711 -0.00155557 -0.00129167 1
C -1.32884080 -2.23189733 -0.39862071 -0.00029424 -0.00039065 -0.00143375 6
H -1.21404415 -3.30934456 -0.54168500 -0.00184312 -0.00061383 -0.00510266 1
C 1.11242661 -1.93404607 -0.62583681 0.00114933 -0.00093131 0.00054189 6
H 1.23276881 -3.00911539 -0.78149553 0.00176419 -0.00034448 -0.00188297 1
C 3.55970529 -1.62112517 -0.87140658 0.00157316 0.00087191 0.00105703 6
H 3.67999958 -2.69399712 -1.03807415 0.00355866 0.00060066 -0.00335390 1
O 3.68763826 -2.35664816 2.24876328 -0.01222848 0.01493045 0.00205729 8
N 3.62576746 -1.22960199 2.46158089 -0.00783158 0.01033316 0.00177406 7
40
Properties = species:S:1:pos:R:3:force:R:3:Z:I:1 Generated=T by=T Multiwfn=T energy=-29654.697584769172 pbc="F F F"
C 4.67159439 -0.75544035 -0.84262452 0.00301714 -0.00042737 0.00039898 6
C 4.52037593 0.61844911 -0.62775346 0.00244291 -0.00109082 -0.00091706 6
C 3.24436070 1.17847986 -0.42074354 0.00118646 -0.00042094 -0.00407854 6
C 2.10352742 0.32410109 -0.41723710 0.00048064 0.00065033 -0.00200495 6
C 2.26342399 -1.08828231 -0.62293803 0.00042279 -0.00040042 0.00148893 6
C 0.79938371 0.87043625 -0.21847001 0.00008243 -0.00098113 -0.00298320 6
C -0.33735240 0.02178882 -0.20941495 0.00005482 0.00022744 -0.00330911 6
C -0.17503748 -1.40482980 -0.39037045 0.00008742 -0.00113396 -0.00095203 6
C -1.63330866 0.56986594 -0.02768659 -0.00155310 -0.00095609 -0.00210085 6
C -2.77987140 -0.28123300 -0.01996554 -0.00011704 -0.00001548 0.00309016 6
C -2.61919999 -1.69878556 -0.18757771 -0.00009842 -0.00050121 -0.00018085 6
C 3.04989434 2.58964953 -0.22128701 0.00114522 0.00010850 -0.00192221 6
C 1.80438647 3.11749219 -0.04156845 0.00152677 -0.00205138 -0.00349398 6
C 0.63397140 2.28433284 -0.03609457 -0.00007466 -0.00002088 -0.00216513 6
C -0.65480715 2.80798057 0.13530745 0.00054127 -0.00275653 0.00335673 6
C -1.79040823 1.98641328 0.14217579 -0.00002360 -0.00071703 -0.00249711 6
C -4.08209632 0.27296562 0.15157201 -0.00194067 0.00104819 -0.00289373 6
C -5.19971253 -0.58515342 0.15273239 -0.00043030 -0.00072387 0.00381788 6
C -5.04051407 -1.96545942 -0.00806325 -0.00018964 0.00009600 0.00129162 6
C -3.11644247 2.51326311 0.31162374 -0.00071394 -0.00164890 -0.00090354 6
C -4.20954357 1.69631239 0.31545546 0.00106845 0.00194653 -0.00040017 6
H 5.66945804 -1.16830510 -1.00887320 0.00010043 -0.00559570 0.00020836 1
H 5.39448901 1.27407546 -0.62441307 0.00174280 -0.00155120 -0.00574734 1
H 3.92923670 3.23866236 -0.22404507 0.00112522 0.00037754 0.00356787 1
H 1.67463187 4.19340591 0.10036723 0.00352462 -0.00270094 0.00311890 1
H -0.77756663 3.88683544 0.26373745 -0.00055711 -0.00446652 0.00997156 1
H -6.19710729 -0.15775990 0.28126374 -0.00123979 -0.00189809 0.00220544 1